polymer,CAS,tg,name,synonyms,CA name,mol.formula
,9016-75-5,,Poly(thiophenylene),Poly(phenylene sulfide),Poly(thiophenylene),(C6H4S)
,25035-71-6,,Poly(p-toluene sulfonamide- co-formaldehyde),Formaldehyde-p-toluenesulfonamide polymer,"Benzenesulfonamide, 4-methyl-, polymer with formaldehyde",(C7H9NO2S· CH2O)
,26006-20-2,,"Poly(tolylene 2,4-diisocyanate)","2,4-Toluene diisocyanate polymer","Benzene, 2,4-diisocyanato- 1-methyl- homopolymer",(C9H6N2O2)
,9069-50-5,,"Poly(tolylene 2,4-diisocyanate- co-poly(1,4-butanediol))",Poly(tetramethylene ether glycol)- TDI copolymer; polytetra- methylene glycol-tolylene isocyanate polymer,"Poly(oxy-1,4-butanediyl), α-hydro-ω-hydroxy-, polymer with 1,3-diisocyanatomethyl- benzene",(C9H6N2O2· (C4H8O) H2O)
,9057-91-4,,"Poly(tolylene 2,4-diisocyanate- co-poly(propylene glycol))",Polyoxypropylene glycol-tolylene diisocyanate polymer; polypro- pylene glycol-TDI polymer,"Poly(oxy(methyl-1,2-ethanediyl)), α-hydro-ω-hydroxy-, polymer with 1,3-diisocyanatomethyl- benzene",(C9H6N2O2· (C3H6O) H2O)
,68133-07-3,,Poly(trimethylolpropane/ di(propylene glycol)-alt- adipic acid/phthalic anhydride)),,"Hexanedioic acid, polymer with 2-ethyl-2-(hydroxymethyl)- 1,3-propanediol, 1,3-isobenzo- furandione and 1,1'-oxybis- (2-propanol)",(C8H4O3· C6H14O3· C6H14O3· C6H10O4)
,25619-78-7,,Poly(L-tyrosine),Polytyrosine,"L-Tyrosine, homopolymer",(C9H11NO3)
,27378-49-0,,Poly(L-tyrosine hydrobromide),,"L-Tyrosine, homopolymer, hydrobromide",(C5H12N2O2)· xBrH
,68002-19-7,,"Poly(urea-co-formaldehyde), butylated",,"Urea, polymer with formaldehyde, butylated",Unk
,68071-45-4,,"Poly(urea-co-formaldehyde), methylated",,"Urea, polymer with formaldehyde, methylated",(CH4N2O· CH2O)
,9003-20-7,,Poly(vinyl acetate),Poly(1-acetoxyethylene); PVAC,"Acetic acid ethenyl ester, homopolymer",(C4H6O2)
,136392-68-2,,Poly(vinyl acetate-co- butyl maleate-co- isobornyl acrylate),,"2-Butenedioic acid (Z)-, dibutyl ester, polymer with ethenyl acetate and exo-1,7,7-trimethyl- bicyclo(2.2.1)hept-2-yl 2-propenoate",(C13H20O2· C12H20O4· C4H6O2)
,25609-89-6,,Poly(vinyl acetate-co- crotonic acid),Crotonic acid-vinyl acetate polymer,"2-Butenoic acid, polymer with ethenyl acetate",(C4H6O2· C4H6O2)
,9002-89-5,,Poly(vinyl alcohol),Poly(1-hydroxyethylene); gohsenal; lemol; polyvinol; polyviol,"Ethenol, homopolymer",(C2H4O)
,25067-34-9,,Poly(vinyl alcohol-co-ethylene),Ethylene-vinyl alcohol polymer,"Ethenol, polymer with ethene",(C2H4O·C2H4)x
,25213-24-5,,Poly(vinyl alcohol-co- vinyl acetate),Vinyl alcohol-vinyl acetate polymer,"Acetic acid ethenyl ester, polymer with ethenol",(C4H6O2· C2H4O)
,25232-08-0,,Poly(4-vinyl biphenyl),,"1,1'-Biphenyl, 4-ethenyl-, homopolymer",(C14H12)
,25951-54-6,,Poly(vinyl bromide),Bromoethylene polymer,"Ethene, bromo-, homopolymer",(C2H3Br)
,63148-65-2,,Poly(vinyl butyral),,"Vinyl acetal polymers, butyrals",Unk
,27360-07-2,,Poly(vinyl butyral-co-vinyl alcohol-co-vinyl acetate),,"Acetic acid ethenyl ester, polymer with 1,1-bis(ethenyloxy)butane and ethenol",(C8H14O2· C4H6O2· C2H4O)
,24991-31-9,,Poly(vinyl butyrate),,"Butanoic acid, ethenyl ester, homopolymer",(C6H10O2)
,9002-86-2,,Poly(vinyl chloride),Poly(1-chloroethylene),"Ethane, chloro-homopolymer",(C2H3Cl)
,9003-22-9,,Poly(vinyl chloride-co-vinyl acetate),Vinyl chloride-vinyl acetate polymer,"Acetic acid ethenyl ester, polymer with chloroethene",(C4H6O2· C2H3Cl)
,41618-91-1,,Poly(vinyl chloride-co-vinyl acetate-co-2-hydroxypropyl acrylate),,"2-Propenoic acid, 2-hydroxypropyl ester, polymer with chloroethene and ethenyl acetate",(C6H10O3· C4H6O2· C2H3Cl)
,9005-09-08,,Poly(vinyl chloride-co-vinyl acetate-co-maleic acid),Maleic acid-vinyl acetate-vinyl; vinyl acetate-vinyl chloride- maleic acid polymer,"2-Butenedioic acid (Z)-,",(C4H6O2· C4H4O4· C2H3Cl)
,25086-48-0,,Poly(vinyl chloride-co-vinyl acetate-vinyl alcohol),Vinyl acetate-vinyl alcohol-vinyl chloride polymer; vinyl chloride- vinyl acetate-vinyl alcohol copolymer,"Acetic acid ethenyl ester, polymer with chloroethene and ethenol",(C4H6O2· C2H4O· C2H3Cl)
,24968-99-8,,Poly(vinyl cinnamate),,"2-Propenoic acid,3-phenyl-, ethenyl ester, homopolymer",(C11H10O2)
,25104-37-4,,Poly(vinyl ethyl ether),Poly(ethyl vinyl ether),"Ethene, ethoxy-, homopolymer",(C4H8O)
,24981-14-4,,Poly(vinyl fluoride),Monofluoroethylene polymer,"Ethene, fluoro-, homopolymer",(C2H3F)
,9003-33-2,,Poly(vinyl formal),Poly(divinyl formal),"1,1'-(methylenebis(oxy))bis-, homopolymer",(C5H8O2)
,26616-03-5,,Poly(N-vinyl-methylacetamide),Poly(N-methyl-N-vinylacetamide),"Acetamide, N-ethenyl-N-methyl-, homopolymer",(C5H9NO)
,9003-09-02,,Poly(vinyl methyl ether),Methyl vinyl ether homopolymer,"Ethene methoxy, homopolymer",(C3H6O)
,25038-87-3,,Poly(vinyl methyl ketone),Methyl vinyl ketone polymer,"3-Buten-2-one, homopolymer",(C4H6O)
,28406-56-6,,Poly(2-vinyl naphthalene),,"Naphthalene, 2-ethenyl-, homopolymer",(C12H10)
,36671-85-9,,Poly(vinyl n-octodecylcarbamate),,"Carbamic acid, octadecyl-, ethenyl ester, homopolymer",(C21H41NO2)
,24979-70-2,,Poly(4-vinyl phenol),p-Vinylphenol polymer;,"Phenol, 4-ethenyl-, homopolymer",(C8H8O)
,25035-84-1,,Poly(vinyl propionate),Vinyl propionate polymer,"Propanoic acid, ethenyl ester, homopolymer",(C5H8O2)
,25014-15-7,,Poly(2-vinyl pyridine),2-Vinylpyridine polymer,"Pyridine, 2-ethenyl-, homo- polymer",(C7H7N)
,24980-54-9,,Poly(2-vinyl pyridine-co- styrene),2-Vinylpyridine-styrene polymer,"Pyridine, 2-ethenyl-, polymer with styrene",(C8H8· C7H7N)x
,9003-39-8,,Poly(vinyl pyrrolidone),Poly(n-pyrrolidinylethylene); poly(vinylpyrrolidone); vinylpyrrolidone polymer,"2-Pyrrolidinone, 1-ethenyl-, homopolymer",(C6H9NO)
,25655-41-8,,"Poly(vinyl pyrrolidone), iodine complex",,"2-Pyrrolidinone, 1-ethenyl-, homopolymer, compd. with iodine",(C6H9NO)·xI2
,28062-44-4,,Poly(1-vinyl pyrrolidone- co-acrylic acid),Acrylic acid-vinylpyrrolidone polymer,"2-Propenoic acid, polymer with 1-ethenyl-2-pyrrolidinone",(C6H9NO· C3H4O2)
,30581-59-0,,Poly(1-vinyl pyrrolidone- co-2-dimethylamino-ethyl methacrylate),,"2-Propenoic acid, 2-methyl-, 2-(dimethylamino)ethyl ester, polymer with 1-ethenyl- 2-pyrrolidinone",(C8H15NO2· C6H9NO)
,25086-29-7,,Poly(1-vinyl pyrrolidone- co-styrene),Styrene-N-vinylpyrrolidone polymer; vinylpyrrolidinone-styrene polymer,"2-Pyrrolidinone, 1-ethenyl-, polymer with ethenylbenzene",(C8H8· C6H9NO)
,25086-89-9,,Poly(1-vinyl pyrrolidone- co-vinyl acetate),N-Vinyl-2-pyrrolidone-vinyl acetate copolymer; poly(vinyl acetate- vinylpyrrolidinone); vinyl acetate-vinylpyrrolidone copolymer,"Acetic acid ethenyl ester, polymer with 1-ethenyl-2-pyrrolidinone",(C6H9NO· C4H6O2)
,136445-69-7,,Poly(1-vinyl pyrrolidone- γ-(1-triacontene)),,"Alkenes, C htmlentities('>') 10 α-, polymers with vinylpyrrolidone",Unk
,63231-81-2,,Poly(1-vinyl pyrrolidone- γ-1-hexadecene),,"2-Pyrrolidinone, 1-ethenyl- hexadecyl-, homopolymer",(C22H41NO)
,9003-95-6,,Poly(vinyl stearate),Vinyl stearate polymer,"Octadecanoic acid, ethenyl ester, homopolymer",(C20H38O2)
,26182-60-5,,"Poly(vinyl sulfate), potassium salt",,"Sulfuric acid, monoethenyl ester, potassium salt, homopolymer",(C2H4O4S·K)
,25053-27-4,,"Poly(vinyl sulfonic acid), sodium salt",Ethenesulfonic acid polymer sodium salt,"Ethenesulfonic acid, homopolymer, sodium salt",(C2H4O3S)· xNa
,9017-21-4,,Poly(vinyl toluene),Poly(methylstyrene); vinyltoluene polymer,"Benzene, ethenylmethyl- homopolymer",(C9H10)x
,9017-27-0,,Poly(vinyl toluene-co-alpha- methylstyrene),α-Methylstyrene-vinyltoluene polymer,"Benzene, ethenylmethyl-, polymer with (1-methylethenyl)benzene",(C9H10·C9H10)
,25067-59-8,,Poly(vinylcarbazole); Poly(9-vinyl carbazole),Poly(n-carbazolylethylene);,"9H-Carbazole, 9-ethenyl-, homopolymer",(C14H11N)
,25498-06-0,,Poly(vinylcyclohexane),,"Cyclohexane, ethenyl-, homopolymer",(C8H14)
,34801-99-5,,Poly(vinylferrocene),,"Ferrocene, ethenyl-, homopolymer",(C12H12Fe)
,9002-85-1,,Poly(vinylidene chloride),"Poly(1,1-dichloroethylene)","Ethene,1,1-dichloro-, homopolymer",(C2H2Cl2)
,9010-76-8,,Poly(vinylidene chloride-co- acrylonitrile),Acrylonitrile-vinylidene chloride polymer,"2-Propenenitrile, polymer with 1,1-dichloroethene",(C3H3N· C2H2Cl2)
,25038-72-6,,Poly(vinylidene chloride-co- methyl acrylate),Methyl acrylate-vinylidene chloride polymer,"2-Propenoic acid, methyl ester, polymer with 1,1-dichloro ethene",(C4H6O2· C2H2Cl2)
,9011-06-07,,Poly(vinylidene chloride-co- vinyl chloride),Vinyl chloride-vinylidene chloride polymer,"Ethene, 1,1-dichloro-, polymer with chloroethylene",(C2H3Cl· C2H2Cl2)
,24937-79-9,,Poly(vinylidene fluoride),"Poly(1,1-difluoroethylene); PVDF","Ethene, 1,1-difluoro-, homopolymer",(C2H2F2)
,9011-17-0,,Poly(vinylidene fluoride-co- hexafluoropropylene),Hexafluoropropene-vinylidene fluoride polymer,"1-Propene, 1,1,2,3,3,3-hexafluoro-, polymer with 1,1-difluoroethene",(C3F6· C2H2F2)
,25190-89-0,,Poly(vinylidene fluoride-co- hexafluoropropylene-co- tetrafluoroethylene),Hexafluoropropene-tetrafluoro- ethylene-vinylidene fluoride polymer; vinylidene fluoride- tetrafluoroethylene-perfluoro- propylene copolymer,"1-Propene, 1,1,2,3,3,3-hexafluoro-, polymer with 1,1-difluoroethene and tetrafluoroethene",(C3F6·C2H2F2· C2F4)
,54675-89-7,,Poly(vinylidene fluoride-co- tetrafluoroethylene-co- propylene),Propene-tetrafluoroethylene- vinylidene fluoride copolymer,"1-Propene, polymer with 1,1-difluoroethene and tetrafluoroethene",(C3H6· C2H2F2· C2F4)
,9003-44-5,,Poly(vinylisobutyl ether),Isobutyl vinyl ether polymer,"Propane, 1-(ethenyloxy)- 2-methyl-, homopolymer",(C6H12O)
,25232-41-1,,Poly(4-vinyl pyridine),4-Vinylpyridine homopolymer,"Pyridine, 4-ethenyl-, homopolymer",(C7H7N)
,53761-76-5,,Poly(4-vinyl pyridine-co-butyl methacrylate),Butyl methacrylate-4-vinylpyridine polymer,"2-Propenoic acid, 2-methyl-, butyl ester, polymer with 4-ethenylpyridine",(C8H14O2. C7H7N)
,26222-40-2,,Poly(4-vinyl pyridene- co-styrene),,"Pyridine, 4-ethenyl-, polymer with ethenylbenzene",(C8H8·C7H7N)
,29323-87-3,,"Poly(4-vinyl pyridine hydrochloride), crosslinked",,"Pyridine, 4-ethenyl-, hydro- chloride, homopolymer",(C7H7N·ClH)
,9017-40-7,,"Poly(4-vinyl pyridine), crosslinked",Divinylbenzene-4-vinylpyridine polymer,"Pyridine, 4-ethenyl-, polymer with diethenylbenzene",(C10H10· C7H7N)
,82246-45-5,,Poly(4-vinyl pyridinium dichromate),,"Chromic acid (H2Cr2O7), salt with diethenylbenzene polymer with 4-ethenylpyridine",(C10H10. C7H7N)· xCr2H2O7
,91650-35-0,,Poly(4-vinyl pyridinium tribromide),,"Hydrogen tribromide, compd. with 4-ethenylpyridine (1 : 1), homopolymer",(C7H7N·Br3H)
,25951-90-0,,Poly(p-xylylene),,"Benzene, 1,4-dimethyl-, homopolymer",(C8H10)
,8050-31-5,,"Rosin, ester with glycerol",,"Resin acids and rosin acids, esters with glycerol",Unk
,8050-26-8,,"Rosin, ester with pentaerythritol",,"Resin acids and rosin acids, esters with pentaerythritol",Unk
,9006-03-05,,"Rubber, chlorinated",,"Rubber, chlorinated",Unk
,8001-23-8,,Safflower seed oil,,Safflower oil,Unk
,63148-58-3,,Silicone oil,Methyl phenyl silicones,"Siloxanes and Silicones, Me Ph",Unk
,8001-22-7,,Soybean oil,Fats and glyceridic oils,Soybean oil,Unk
,9005-25-8,,Starch,Arrowroot starch; potato starch; rice starch; tapioca starch,Starch,Unk
,9005-84-9,,"Starch, soluble",,Amylodextrin,Unk
,60323-79-7,,"Starch-graft-poly(acrylic acid), sodium salt",Acrylic acid-starch polymer sodium salt,"Starch, polymer with 2-propenoic acid, sodium salt",(C3H4O2· Unk)·xNa
,91104-69-7,,Tri-o-benzyl cellulose,,"Cellulose, tris(phenylmethyl) ether",(C7H8O)1/3; Unk
,8001-20-5,,Tung oil,Fats and glyceridic oils,Tung oil,Unk
,9010-66-6,,Zein,,Zeins,Unk