LAMMPS data file using Dreiding for polymer_relax

2002  atoms
2201  bonds
3698  angles
5988  dihedrals
1397  impropers

4  atom types
4  bond types
2  angle types
12  dihedral types
1  improper types

0.0 38.5306 xlo xhi
0.0 38.5306 ylo yhi
0.0 38.5306 zlo zhi

Masses

  4      1.007900     # H_
  2     12.011000     # C_R
  1     32.060000     # S_3
  3     32.060000     # S_3

Atoms

     1   1   1   -0.05259      9.39690400      0.78054000     20.68649200
     2   1   2    0.01835     10.10384500      2.11396800     19.88256200
     3   1   2   -0.04740     11.29514800      2.65591700     20.35073700
     4   1   2   -0.04790     11.75519200      3.87740200     19.84444300
     5   1   2    0.01195     12.86032000      4.51131300     20.42483000
     6   1   3   -0.09017     14.47683800      3.71989700     20.40180600
     7   1   2    0.01191     14.68024100      3.66150000     18.61428900
     8   1   2   -0.04847     13.75043200      2.98209300     17.81813600
     9   1   2   -0.05524     13.46858300      1.63198400     18.05848100
    10   1   2   -0.03223     14.28203100      0.54142400     17.35856600
    11   1   2   -0.04740      9.49775100      2.63649600     18.74602500
    12   1   4    0.06450     11.94509700      2.07376800     21.00401200
    13   1   4    0.06448     11.24987400      4.30984100     18.99353100
    14   1   2   -0.04790     12.65775800      5.62412800     21.24982200
    15   1   2   -0.04847     15.57749400      4.53293900     17.98537600
    16   1   4    0.06446     13.14511800      3.52404500     17.09151100
    17   1   4    0.06388     12.62677000      1.35208400     18.69181200
    18   1   2   -0.05524     15.20375200      0.99117800     16.51856300
    19   1   4    0.06450      8.57187700      2.20303500     18.36791300
    20   1   4    0.06448     13.48620200      6.11514200     21.73868300
    21   1   4    0.06446     16.29087100      5.11214600     18.57164700
    22   1   4    0.06388     15.78434500      0.21705200     16.03893600
    23   1   2   -0.05524     14.14614700     37.74497300     17.74912500
    24   1   2   -0.04847     12.88386100     37.13949300     17.74391100
    25   1   2    0.01191     12.13391400     37.07991800     16.56322100
    26   1   3   -0.09017     10.57249500     36.18528100     16.52330300
    27   1   2    0.01191     10.24540300     36.36951400     14.76288600
    28   1   2   -0.04847     11.10223000     35.78994400     13.81951600
    29   1   2   -0.05524     12.48976700     35.92126800     13.95178600
    30   1   2   -0.03223     13.21737700     35.24590200     15.11598700
    31   1   2   -0.05524     15.13636100      0.87854300     16.31521900
    32   1   4    0.06388     15.02872700     37.12692800     17.91396800
    33   1   4    0.06446     12.55135000     36.62507000     18.63340800
    34   1   2   -0.04847     12.75565500     37.36087100     15.34072200
    35   1   2   -0.04847      8.95759100     36.69852800     14.32324000
    36   1   4    0.06446     10.75084300     34.98287200     13.17666200
    37   1   4    0.06388     13.07340400     36.39382500     13.16175000
    38   1   2   -0.05524     12.42853700     34.59310800     15.95803500
    39   1   4    0.06388     15.23261400      1.91653500     15.99677200
    40   1   4    0.06446     12.21329100     37.29154700     14.40936000
    41   1   4    0.06446      8.19795100     37.03003400     15.03116000
    42   1   4    0.06388     12.94951000     34.10632100     16.76922400
    43   1   2   -0.05524     14.53947000     35.57355100     15.39314300
    44   1   2   -0.04847     15.47905000     35.62860200     14.35672600
    45   1   2    0.01191     16.31041100     34.53227900     14.09804800
    46   1   3   -0.09017     17.70775800     34.69708900     12.97543600
    47   1   2    0.01191     18.56748800     36.00347000     13.86663400
    48   1   2   -0.04847     18.90282400     35.83744100     15.21570100
    49   1   2   -0.05524     17.90274600     35.82707500     16.19536300
    50   1   2   -0.03223     17.04957500     34.57502400     16.40836200
    51   1   2   -0.05524     12.54483500     34.32446400     15.91017900
    52   1   4    0.06388     14.87078600     35.69834300     16.42404400
    53   1   4    0.06446     15.50519700     36.50486000     13.72594300
    54   1   2   -0.04847     15.87563300     33.24603000     14.43941600
    55   1   2   -0.04847     19.22461400     37.01605700     13.15751300
    56   1   4    0.06446     19.91166700     35.53955300     15.50135500
    57   1   4    0.06388     17.78030700     36.68016300     16.86270800
    58   1   2   -0.05524     17.32099600     33.57312400     15.58375300
    59   1   4    0.06388     11.50325400     34.07775400     15.70440400
    60   1   4    0.06446     16.47898400     32.37678700     14.22311800
    61   1   4    0.06446     19.06667200     37.13429100     12.08551700
    62   1   4    0.06388     16.72567100     32.68726300     15.74879300
    63   1   2   -0.05524     15.95248600     34.61832800     17.26078200
    64   1   2   -0.04847     16.14253000     34.77621600     18.63880800
    65   1   2    0.01191     16.93262500     35.82358600     19.12744500
    66   1   3   -0.09017     18.67248000     35.93402400     18.67944300
    67   1   2    0.01191     19.22913900     34.45946900     19.54882100
    68   1   2   -0.04847     19.18266900     34.40243000     20.94688700
    69   1   2   -0.05524     20.21399600     34.96188600     21.71067500
    70   1   2   -0.03223     20.53045600     36.45450600     21.59736200
    71   1   2   -0.05524     17.35940900     33.40342300     15.72758800
    72   1   4    0.06388     14.95487500     34.39033100     16.88543100
    73   1   4    0.06446     15.58218900     34.14792400     19.31531900
    74   1   2   -0.04847     16.50112800     36.54318400     20.24815500
    75   1   2   -0.04847     19.42097200     33.26491000     18.84438600
    76   1   4    0.06446     18.28922000     34.04013400     21.45540500
    77   1   4    0.06388     20.70956700     34.36970200     22.47997800
    78   1   2   -0.05524     19.78828800     37.11270100     20.71792000
    79   1   4    0.06388     18.20983900     33.37161800     15.04651700
    80   1   4    0.06446     17.10307300     37.33483300     20.66929000
    81   1   4    0.06446     19.42309800     33.25831200     17.75440800
    82   1   4    0.06388     20.00640900     38.16846800     20.65327900
    83   1   2   -0.05524     19.58535200     37.39678700     21.98592900
    84   1   2   -0.04847     19.07162000     37.37713500     23.28811700
    85   1   2    0.01191     19.82269400     37.89183600     24.35158800
    86   1   3   -0.09017     19.00023100      0.13238300     25.75475100
    87   1   2    0.01191     18.34889400      1.56553800     24.88192500
    88   1   2   -0.04847     19.16602500      2.29425900     24.00942100
    89   1   2   -0.05524     20.44770600      2.69128600     24.40900000
    90   1   2   -0.03223     21.33782800      3.48757300     23.45270000
    91   1   2   -0.05524     21.77380000     36.86393000     21.12984900
    92   1   4    0.06388     19.20861900     38.12611600     21.26881600
    93   1   4    0.06446     18.02351200     37.15817700     23.42927300
    94   1   2   -0.04847     21.18239100     38.16599000     24.16168400
    95   1   2   -0.04847     17.00400000      1.92336700     25.03429800
    96   1   4    0.06446     18.82456800      2.53176300     23.00189900
    97   1   4    0.06388     20.80464200      2.46145300     25.41292900
    98   1   2   -0.05524     20.80611100      3.71280200     22.25938500
    99   1   4    0.06388     22.52222200     36.12659900     20.83949300
   100   1   4    0.06446     21.78145800      0.06355400     24.95173700
   101   1   4    0.06446     16.39397900      1.46747900     25.81413200
   102   1   4    0.06388     21.43318100      4.28788700     21.59420800
   103   1   2   -0.05524     21.00789000      4.79728200     23.12421400
   104   1   2   -0.04847     20.97774300      5.78206300     24.11884800
   105   1   2    0.01191     22.16243500      6.19497100     24.74014700
   106   1   3   -0.09017     22.11064500      7.36150500     26.11000700
   107   1   2    0.01191     23.75611500      7.02874600     26.75939400
   108   1   2   -0.04847     24.25428400      5.72069500     26.78818800
   109   1   2   -0.05524     23.42244400      4.65669300     27.15688900
   110   1   2   -0.03223     22.76994300      4.63609000     28.54062300
   111   1   2   -0.05524     22.48954400      2.90651200     22.93499500
   112   1   4    0.06388     20.63624200      5.03765200     22.12812200
   113   1   4    0.06446     20.02805200      6.22235400     24.38461400
   114   1   2   -0.04847     23.36537100      6.14445500     24.02572900
   115   1   2   -0.04847     24.65619800      8.08343900     26.95297100
   116   1   4    0.06446     25.28361000      5.51519200     26.49432100
   117   1   4    0.06388     23.21200900      3.85478000     26.44925100
   118   1   2   -0.05524     23.09233500      5.65876300     29.32014600
   119   1   4    0.06388     22.75866300      1.88500100     23.20367800
   120   1   4    0.06446     24.29070900      6.48657900     24.46516100
   121   1   4    0.06446     24.31782200      9.11813600     26.89815300
   122   1   4    0.06388     22.61709600      5.64619700     30.28988200
   123   1   2   -0.05524     21.96358900      5.69377400     28.94459800
   124   1   2   -0.04847     20.61907600      5.73682300     28.55674000
   125   1   2    0.01191     19.79592700      6.78826900     28.97731700
   126   1   3   -0.09017     18.81409800      7.70736300     27.78095600
   127   1   2    0.01191     18.56779100      9.18877200     28.77330700
   128   1   2   -0.04847     19.66720700      9.89086200     29.28159300
   129   1   2   -0.05524     20.70652500     10.28634200     28.43105600
   130   1   2   -0.03223     20.39126600     10.98523700     27.10702500
   131   1   2   -0.05524     22.96489400      3.54589100     29.38059900
   132   1   4    0.06388     22.37138500      6.48950700     29.56798600
   133   1   4    0.06446     20.29479200      5.11135500     27.73818600
   134   1   2   -0.04847     19.89497900      7.25236100     30.29443800
   135   1   2   -0.04847     17.38294200      9.92381300     28.64742000
   136   1   4    0.06446     19.61118200     10.37332700     30.25739500
   137   1   4    0.06388     21.74442400     10.17040200     28.74318400
   138   1   2   -0.05524     19.09855100     11.13103300     26.85190700
   139   1   4    0.06388     23.58399300      2.70815000     29.05965100
   140   1   4    0.06446     19.29781900      8.08314700     30.64026100
   141   1   4    0.06446     16.53175300      9.51443500     28.10337200
   142   1   4    0.06388     18.88274300     11.63811600     25.92309300
   143   1   2   -0.05524     19.37596300     11.93260300     27.04572900
   144   1   2   -0.04847     19.08441300     12.71970000     28.16620900
   145   1   2    0.01191     18.06314800     13.67574300     28.11143400
   146   1   3   -0.09017     17.43217700     14.41830400     29.62486700
   147   1   2    0.01191     18.99285100     14.48161800     30.51945600
   148   1   2   -0.04847     19.82009200     15.60672500     30.42041500
   149   1   2   -0.05524     20.52656700     15.86140500     29.23887800
   150   1   2   -0.03223     21.14820500     17.23846100     28.99766500
   151   1   2   -0.05524     21.13961200     10.68902100     25.97374000
   152   1   4    0.06388     18.74331300     12.00446400     26.16103100
   153   1   4    0.06446     19.68463800     12.59865000     29.05585900
   154   1   2   -0.04847     17.23096500     13.72689100     26.98677600
   155   1   2   -0.04847     19.27426600     13.52294100     31.50014100
   156   1   4    0.06446     20.01235800     16.22942900     31.29412700
   157   1   4    0.06388     20.70476600     15.05899900     28.52299500
   158   1   2   -0.05524     20.92316400     18.12360700     29.95856400
   159   1   4    0.06388     21.94664400      9.95802700     26.02320700
   160   1   4    0.06446     16.41374300     14.43054000     26.92824000
   161   1   4    0.06446     18.65332200     12.63261400     31.59937300
   162   1   4    0.06388     21.37686900     19.08897900     29.78942400
   163   1   2   -0.05524     22.24329000     17.64798900     29.74944800
   164   1   2   -0.04847     23.39634600     16.85533400     29.79589700
   165   1   2    0.01191     24.06214500     16.50708600     28.61461100
   166   1   3   -0.09017     25.29338700     17.61270100     27.90633300
   167   1   2    0.01191     24.16220300     18.90751900     27.37353900
   168   1   2   -0.04847     23.04682500     18.59348100     26.58784600
   169   1   2   -0.05524     22.17978300     19.60473900     26.15704000
   170   1   2   -0.03223     20.93693100     19.25274000     25.33709100
   171   1   2   -0.05524     20.63126100     18.06646800     28.00808300
   172   1   4    0.06388     22.16339900     18.50788900     30.41449600
   173   1   4    0.06446     23.70996500     16.45065500     30.74683300
   174   1   2   -0.04847     23.58429800     15.43788300     27.84749400
   175   1   2   -0.04847     24.12279800     20.12610800     28.06164300
   176   1   4    0.06446     22.86092700     17.56484900     26.27888300
   177   1   4    0.06388     22.25101200     20.60582000     26.58232100
   178   1   2   -0.05524     20.80144600     17.96279900     25.06295900
   179   1   4    0.06388     19.78251500     17.74093500     27.40661800
   180   1   4    0.06446     24.05550200     15.16521500     26.91474600
   181   1   4    0.06446     24.89299100     20.37583400     28.79139600
   182   1   4    0.06388     19.91470400     17.71899100     24.49670200
   183   1   2   -0.05524     19.73707500     19.91269800     25.57562800
   184   1   2   -0.04847     19.67050200     21.30659700     25.46331000
   185   1   2    0.01191     18.59105700     22.00873900     26.01266700
   186   1   3   -0.09017     17.03719000     22.13465200     25.11286400
   187   1   2    0.01191     15.99451200     22.57481100     26.51253600
   188   1   2   -0.04847     14.66301200     22.95722100     26.31037400
   189   1   2   -0.05524     13.79773800     22.13894200     25.57435800
   190   1   2   -0.03223     13.51062800     20.71009100     26.04003400
   191   1   2   -0.05524     21.01826300     18.29086200     24.33695200
   192   1   4    0.06388     18.85591000     19.35477600     25.89244500
   193   1   4    0.06446     20.57397400     21.85261500     25.23526800
   194   1   2   -0.04847     18.83928300     23.09817200     26.85618300
   195   1   2   -0.04847     16.45436900     22.36541000     27.81817100
   196   1   4    0.06446     14.22454200     23.76327000     26.89870300
   197   1   4    0.06388     13.30171400     22.52618500     24.68435700
   198   1   2   -0.05524     14.16466300     20.34187000     27.13278500
   199   1   4    0.06388     21.96205100     17.78333200     24.13751300
   200   1   4    0.06446     18.02904800     23.68055400     27.26940300
   201   1   4    0.06446     17.49972200     22.11957200     28.00499000
   202   1   4    0.06388     13.94653800     19.33755900     27.46471800
   203   1   2   -0.05524     12.84469600     20.49087200     27.24027500
   204   1   2   -0.04847     11.75793500     21.29879300     27.59553900
   205   1   2    0.01191     11.97163100     22.56879900     28.14455600
   206   1   3   -0.09017     12.88425800     22.75024600     29.68539600
   207   1   2    0.01191     12.55244600     24.50010500     29.94596200
   208   1   2   -0.04847     11.23633600     24.97739600     29.95284900
   209   1   2   -0.05524     10.62111200     25.36817900     28.75753000
   210   1   2   -0.03223      9.38852300     26.27407400     28.78885600
   211   1   2   -0.05524     13.89423500     19.63455700     25.24746100
   212   1   4    0.06388     13.31430000     19.90584400     28.03104300
   213   1   4    0.06446     10.75904000     20.94905500     27.38038000
   214   1   2   -0.04847     11.20900600     23.65056700     27.68828700
   215   1   2   -0.04847     13.54088300     25.32280300     30.49927900
   216   1   4    0.06446     10.58874500     24.79912200     30.81130300
   217   1   4    0.06388     11.06260000     25.09518200     27.79906200
   218   1   2   -0.05524      8.96939900     26.59699900     30.00438300
   219   1   4    0.06388     14.40248800     19.80454500     24.29831300
   220   1   4    0.06446     11.32656000     24.63596600     28.11439700
   221   1   4    0.06446     14.56643200     24.96717600     30.59866700
   222   1   4    0.06388      8.10811700     27.24842900     30.01962000
   223   1   2   -0.05524      9.31557900     27.37774600     27.94702100
   224   1   2   -0.04847     10.26682000     28.39988700     28.04884800
   225   1   2    0.01191     10.08647500     29.60401900     27.35780400
   226   1   3   -0.09017     11.50329300     30.63343000     26.94194200
   227   1   2    0.01191     10.58578100     32.03128900     26.27548900
   228   1   2   -0.04847     11.26438600     33.13817900     25.75176200
   229   1   2   -0.05524     12.29794100     33.74103100     26.47862700
   230   1   2   -0.03223     12.15994800     33.93895100     27.98948300
   231   1   2   -0.05524      8.33256300     25.97522100     29.64192900
   232   1   4    0.06388      8.49553300     27.47354300     27.23537100
   233   1   4    0.06446     11.07814100     28.28557000     28.75247500
   234   1   2   -0.04847      8.81944100     30.19910900     27.33564500
   235   1   2   -0.04847      9.25338900     31.86597400     25.87874900
   236   1   4    0.06446     11.08544900     33.46109500     24.72618500
   237   1   4    0.06388     13.30707800     33.77852700     26.06833900
   238   1   2   -0.05524     11.00406400     33.53495700     28.49759000
   239   1   4    0.06388      8.38082000     25.10130300     30.29157400
   240   1   4    0.06446      8.65488600     31.14419700     26.83952900
   241   1   4    0.06446      8.70527400     30.96088100     26.14043100
   242   1   4    0.06388     10.91859900     33.66373700     29.56647300
   243   1   2   -0.05524     10.90881700     33.85784500     28.58964400
   244   1   2   -0.04847      9.96452200     34.86976200     28.37909500
   245   1   2    0.01191      8.59954600     34.60836200     28.54794500
   246   1   3   -0.09017      7.37493900     35.84842600     28.09785600
   247   1   2    0.01191      7.88562000     36.06691500     26.38570400
   248   1   2   -0.04847      9.06964100     36.74947700     26.08205200
   249   1   2   -0.05524      9.24481600     38.07612800     26.49352500
   250   1   2   -0.03223      9.41010900     38.40383900     27.97884800
   251   1   2   -0.05524     13.29136800     34.17382900     28.76202500
   252   1   4    0.06388     10.67259000     33.03106000     29.25951300
   253   1   4    0.06446     10.30199800     35.82463600     28.00396000
   254   1   2   -0.04847      8.19949300     33.57970400     29.40923400
   255   1   2   -0.04847      7.19792900     35.40354000     25.36246600
   256   1   4    0.06446      9.91357700     36.22097500     25.63870300
   257   1   4    0.06388      9.29476800      0.34621500     25.75563300
   258   1   2   -0.05524      9.33437300     37.35696500     28.78864500
   259   1   4    0.06388     14.27538700     34.22211100     28.29568200
   260   1   4    0.06446      7.15407300     33.37455000     29.58646300
   261   1   4    0.06446      6.24668400     34.91053500     25.56291000
   262   1   4    0.06388      9.46652800     37.59277800     29.83426800
   263   1   2   -0.05524      8.29444400      0.16733400     28.75401900
   264   1   2   -0.04847      8.44945800      0.50812200     30.10303100
   265   1   2    0.01191      9.32431900      1.53550300     30.47599900
   266   1   3   -0.09017      9.27905800      3.12069900     29.62446800
   267   1   2    0.01191      7.53183700      3.47030200     29.87941400
   268   1   2   -0.04847      6.55472100      2.68157400     29.26042200
   269   1   2   -0.05524      6.10091200      3.00003700     27.97487200
   270   1   2   -0.03223      5.78950000      1.88655200     26.97283700
   271   1   2   -0.05524     10.67479300     38.38091500     28.55517200
   272   1   4    0.06388      7.29370200      0.09223400     28.32860600
   273   1   4    0.06446      7.80355100      0.04337200     30.83324500
   274   1   2   -0.04847     10.58675300      1.21004300     30.98623100
   275   1   2   -0.04847      7.14176600      4.41576900     30.83541400
   276   1   4    0.06446      6.16173500      1.79611000     29.76003700
   277   1   4    0.06388      6.12347800      4.03235400     27.62571100
   278   1   2   -0.05524      6.02095500      0.65972600     27.41868400
   279   1   4    0.06388     11.54929100     38.13505900     27.95275200
   280   1   4    0.06446     11.29691800      1.97905900     31.25209000
   281   1   4    0.06446      7.87706100      5.07828700     31.29204500
   282   1   4    0.06388      5.78527000     38.40828800     26.71211000
   283   1   2   -0.05524      4.76123700      0.98741000     27.23035800
   284   1   2   -0.04847      3.57037800      1.43460200     27.81505800
   285   1   2    0.01191      2.51488600      0.54250400     28.03888600
   286   1   3   -0.09017      2.70538800     37.71507000     29.20482600
   287   1   2    0.01191      0.97613100     37.21925800     29.26680700
   288   1   2   -0.04847      0.27658900     36.94257500     28.08609200
   289   1   2   -0.05524     37.56306900     36.30257600     28.13641000
   290   1   2   -0.03223     37.48373200     34.79840300     28.40486900
   291   1   2   -0.05524      6.52004600      1.79333200     25.79397600
   292   1   4    0.06388      4.95021200     38.44478600     27.20691200
   293   1   4    0.06446      3.49008000      2.47331800     28.09970300
   294   1   2   -0.04847      1.54610200      0.36265200     27.04434600
   295   1   2   -0.04847      0.37544900     36.93549400     30.49914600
   296   1   4    0.06446      0.72219700     37.16205900     27.11585400
   297   1   4    0.06388     36.64406400     36.88823000     28.11318300
   298   1   2   -0.05524      0.12702000     34.19700000     28.53799900
   299   1   4    0.06388      7.31639100      2.50695700     25.58261300
   300   1   4    0.06446      0.73803600     38.18832800     27.17277000
   301   1   4    0.06446      0.87730700     37.19101800     31.43239100
   302   1   4    0.06388      0.06399400     33.13830800     28.74195500
   303   1   2   -0.05524     36.24628700     34.18400900     28.55766900
   304   1   2   -0.04847     35.33405400     34.67221200     29.50079700
   305   1   2    0.01191     34.14901700     33.97481200     29.76408800
   306   1   3   -0.09017     34.20205500     32.23564200     30.22503800
   307   1   2    0.01191     35.41655700     32.38331400     31.54533200
   308   1   2   -0.04847     36.20649700     31.28524100     31.90620500
   309   1   2   -0.05524     37.17515300     30.79232000     31.02374500
   310   1   2   -0.03223     36.75295700     30.15269600     29.69953600
   311   1   2   -0.05524      0.11964400     34.04530200     28.46936000
   312   1   4    0.06388     35.97873700     33.32522800     27.94202900
   313   1   4    0.06446     35.66222600     35.43087100     30.19587800
   314   1   2   -0.04847     32.96151800     34.38144400     29.14401000
   315   1   2   -0.04847     35.84075400     33.64990700     31.96461700
   316   1   4    0.06446     36.13095400     30.85501800     32.90485500
   317   1   4    0.06388     38.23450900     30.93289500     31.23846400
   318   1   2   -0.05524     35.44262200     30.08602700     29.50971700
   319   1   4    0.06388      1.09035500     34.52229700     28.33409600
   320   1   4    0.06446     32.03755300     33.84458500     29.30044400
   321   1   4    0.06446     35.31290500     34.54676900     31.64040300
   322   1   4    0.06388     35.15136800     29.64705500     28.56691600
   323   1   2   -0.05524     36.32374200     28.83091400     29.67182600
   324   1   2   -0.04847     35.15706100     28.45940500     30.35067500
   325   1   2    0.01191     34.25501600     27.56236500     29.76618000
   326   1   3   -0.09017     33.96410400     27.59479500     27.99014000
   327   1   2    0.01191     32.90781400     26.13996500     27.90226600
   328   1   2   -0.04847     31.56317900     26.21768600     28.28425600
   329   1   2   -0.05524     31.17972400     27.03444300     29.35470900
   330   1   2   -0.03223     29.71257400     27.09921900     29.78386500
   331   1   2   -0.05524     36.77527800     30.90453400     28.53063000
   332   1   4    0.06388     36.95950500     28.05491300     29.24553000
   333   1   4    0.06446     34.97667600     28.86741400     31.33423500
   334   1   2   -0.04847     33.30397500     26.92372500     30.57095300
   335   1   2   -0.04847     33.32539700     25.01735800     27.17743700
   336   1   4    0.06446     30.78017800     25.83440900     27.62995600
   337   1   4    0.06388     31.92857800     27.60338100     29.90573300
   338   1   2   -0.05524     28.88739900     26.36845500     29.04730300
   339   1   4    0.06388     37.09643700     31.94591400     28.55262300
   340   1   4    0.06446     32.57322000     26.25174300     30.14570300
   341   1   4    0.06446     34.35377500     24.93580500     26.82545900
   342   1   4    0.06388     27.85567700     26.40677300     29.36429300
   343   1   2   -0.05524     29.11911700     26.00268900     30.39830000
   344   1   2   -0.04847     29.64575600     25.50050500     31.59432000
   345   1   2    0.01191     29.47454300     26.20465900     32.79217300
   346   1   3   -0.09017     30.03309300     25.49630600     34.34981800
   347   1   2    0.01191     29.61262600     26.89390600     35.40334600
   348   1   2   -0.04847     28.52597600     27.71758700     35.08594700
   349   1   2   -0.05524     28.18786300     28.79160100     35.91791600
   350   1   2   -0.03223     27.74288900     28.53581100     37.35925900
   351   1   2   -0.05524     28.98393500     28.26544400     29.58112300
   352   1   4    0.06388     28.24024700     25.53333100     29.95627100
   353   1   4    0.06446     30.04064900     24.49535500     31.60587900
   354   1   2   -0.04847     28.49833900     27.20544000     32.86608900
   355   1   2   -0.04847     30.21025500     27.02286100     36.66279500
   356   1   4    0.06446     28.10726000     27.71601800     34.07958000
   357   1   4    0.06388     28.40595000     29.81394700     35.60913300
   358   1   2   -0.05524     27.67950000     27.25634200     37.70042700
   359   1   4    0.06388     29.45178000     29.13196600     29.11383300
   360   1   4    0.06446     28.31907200     27.74400500     33.78489900
   361   1   4    0.06446     31.06190300     26.40097800     36.93857800
   362   1   4    0.06388     27.37911300     27.08292300      0.19260000
   363   1   2   -0.05524     26.69339000     27.66188300     37.61791300
   364   1   2   -0.04847     25.37318600     28.06463100     37.38369700
   365   1   2    0.01191     24.86637600     28.09996600     36.07913000
   366   1   3   -0.09017     25.25897400     26.78321600     34.91636100
   367   1   2    0.01191     25.03902000     25.40151700     36.04884900
   368   1   2   -0.04847     23.79052800     25.15761100     36.63346600
   369   1   2   -0.05524     23.62156800     24.08241300     37.51403500
   370   1   2   -0.03223     24.03682200     22.67166800     37.09182400
   371   1   2   -0.05524     28.40761000     29.15921400     38.40883800
   372   1   4    0.06388     26.89471500     26.64386500     37.95139000
   373   1   4    0.06446     24.69793000     28.14318900     38.22289800
   374   1   2   -0.04847     24.75386300     29.32995400     35.41998600
   375   1   2   -0.04847     26.06432900     24.46208100     36.21071400
   376   1   4    0.06446     22.94814400     25.81970700     36.43317200
   377   1   4    0.06388     23.31549600     24.26100100      0.01421100
   378   1   2   -0.05524     24.51059400     22.58011500     35.85707300
   379   1   4    0.06388     29.24111200     29.83267100     38.20926100
   380   1   4    0.06446     24.39783700     29.38754300     34.40198400
   381   1   4    0.06446     27.06007900     24.65382600     35.81094400
   382   1   4    0.06388     24.81566100     21.58460000     35.57022000
   383   1   2   -0.05524     23.59397300     22.14961600     35.88209500
   384   1   2   -0.04847     22.26271500     22.32904800     35.48768700
   385   1   2    0.01191     21.25149100     21.52577700     36.02822500
   386   1   3   -0.09017     19.52205200     21.89210800     35.68934500
   387   1   2    0.01191     18.81118400     20.50487100     36.58947700
   388   1   2   -0.04847     17.43642400     20.46048100     36.85036800
   389   1   2   -0.05524     16.51942000     20.39697200     35.79439900
   390   1   2   -0.03223     16.49894100     19.17989200     34.86747000
   391   1   2   -0.05524     24.87812100     21.92521300     37.90859900
   392   1   4    0.06388     24.25136300     21.52230700     35.28008000
   393   1   4    0.06446     22.02653600     23.13596000     34.80981300
   394   1   2   -0.04847     21.59451100     20.48328300     36.89744600
   395   1   2   -0.04847     19.40452600     19.23974400     36.50345000
   396   1   4    0.06446     17.07097400     20.20035000     37.84378500
   397   1   4    0.06388     15.76515400     21.17488200     35.67591300
   398   1   2   -0.05524     17.41847800     18.26357500     35.13629200
   399   1   4    0.06388     25.23938700     22.33865600      0.31960800
   400   1   4    0.06446     20.83607400     19.86672800     37.35683000